First line of this config file
2 atoms
1 bonds
0 angles
1 atom types
1 bond types
1 angle types
-100.0 100.0 xlo xhi
-100.0 100.0 ylo yhi
-0.25 0.25 zlo zhi

Masses

1 1


Atoms

1 1 1 -0.5 0.0 0.0
2 1 1 0.5 0.0 0.0


Bonds

1 1 1 2