LAMMPS data file: 500 random filaments

4500 atoms
4000 bonds
3500 angles

2 atom types
1 bond types
1 angle types

-100 100 xlo xhi
-100 100 ylo yhi
-0.25 0.25 zlo zhi

Masses

1 1.0
2 1.0

Atoms

1 1 1 88.65461850772415 -33.80265460566068 0.0
2 1 1 87.9717685216505 -34.53321322515621 0.0
3 1 1 87.28891853557685 -35.26377184465175 0.0
4 1 1 86.60606854950322 -35.99433046414728 0.0
5 1 1 85.92321856342957 -36.72488908364282 0.0
6 1 1 85.24036857735592 -37.45544770313836 0.0
7 1 1 84.55751859128229 -38.186006322633894 0.0
8 1 1 83.87466860520864 -38.91656494212943 0.0
9 1 1 83.19181861913499 -39.647123561624966 0.0
10 2 1 12.292327136130577 15.310151825182023 0.0
11 2 1 12.605496806182266 16.259849017849096 0.0
12 2 1 12.918666476233954 17.209546210516166 0.0
13 2 1 13.231836146285643 18.15924340318324 0.0
14 2 1 13.54500581633733 19.10894059585031 0.0
15 2 1 13.858175486389017 20.05863778851738 0.0
16 2 1 14.171345156440706 21.008334981184454 0.0
17 2 1 14.484514826492394 21.958032173851525 0.0
18 2 1 14.797684496544083 22.907729366518595 0.0
19 1 1 47.32705721697215 33.8725430463659 0.0
20 1 1 47.9406247894247 33.08290082736119 0.0
21 1 1 48.554192361877256 32.29325860835648 0.0
22 1 1 49.167759934329816 31.503616389351777 0.0
23 1 1 49.78132750678237 30.71397417034707 0.0
24 1 1 50.39489507923492 29.92433195134236 0.0
25 1 1 51.00846265168748 29.13468973233765 0.0
26 1 1 51.62203022414003 28.345047513332943 0.0
27 1 1 52.235597796592586 27.55540529432824 0.0
28 2 1 58.61670629377154 72.2430162003623 0.0
29 2 1 59.453157347375395 72.79105783648588 0.0
30 2 1 60.28960840097925 73.33909947260945 0.0
31 2 1 61.1260594545831 73.88714110873303 0.0
32 2 1 61.96251050818695 74.4351827448566 0.0
33 2 1 62.798961561790804 74.98322438098018 0.0
34 2 1 63.63541261539466 75.53126601710376 0.0
35 2 1 64.47186366899851 76.07930765322733 0.0
36 2 1 65.30831472260236 76.6273492893509 0.0
37 1 1 -10.348865803524532 -33.866494903252324 0.0
38 1 1 -9.381698991678576 -34.12063730047035 0.0
39 1 1 -8.41453217983262 -34.37477969768838 0.0
40 1 1 -7.447365367986661 -34.62892209490641 0.0
41 1 1 -6.480198556140704 -34.88306449212444 0.0
42 1 1 -5.5130317442947465 -35.13720688934247 0.0
43 1 1 -4.545864932448789 -35.3913492865605 0.0
44 1 1 -3.578698120602832 -35.64549168377853 0.0
45 1 1 -2.6115313087568746 -35.899634080996556 0.0
46 2 1 -98.19977804608523 32.725938078816995 0.0
47 2 1 -98.94910423956583 33.38813914780125 0.0
48 2 1 -99.69843043304643 34.0503402167855 0.0
49 2 1 99.55224337347299 34.712541285769746 0.0
50 2 1 98.80291717999239 35.374742354754 0.0
51 2 1 98.0535909865118 36.03694342373825 0.0
52 2 1 97.30426479303121 36.699144492722496 0.0
53 2 1 96.55493859955061 37.36134556170675 0.0
54 2 1 95.80561240607001 38.023546630691 0.0
55 1 1 -98.44607574337533 61.27349505568003 0.0
56 1 1 -97.49209301803472 60.97363348803306 0.0
57 1 1 -96.5381102926941 60.67377192038609 0.0
58 1 1 -95.58412756735349 60.37391035273912 0.0
59 1 1 -94.63014484201288 60.074048785092145 0.0
60 1 1 -93.67616211667227 59.774187217445174 0.0
61 1 1 -92.72217939133166 59.4743256497982 0.0
62 1 1 -91.76819666599104 59.17446408215123 0.0
63 1 1 -90.81421394065043 58.87460251450426 0.0
64 2 1 17.272142754379196 -93.07198077445925 0.0
65 2 1 17.772407586753424 -92.20610832571775 0.0
66 2 1 18.27267241912765 -91.34023587697627 0.0
67 2 1 18.77293725150188 -90.47436342823477 0.0
68 2 1 19.273202083876107 -89.60849097949328 0.0
69 2 1 19.773466916250335 -88.7426185307518 0.0
70 2 1 20.273731748624563 -87.8767460820103 0.0
71 2 1 20.77399658099879 -87.01087363326882 0.0
72 2 1 21.27426141337302 -86.14500118452732 0.0
73 1 1 66.27553861803366 3.0795432160858356 0.0
74 1 1 65.62415453302097 2.3207950537867905 0.0
75 1 1 64.97277044800828 1.562046891487746 0.0
76 1 1 64.32138636299558 0.803298729188701 0.0
77 1 1 63.670002277982896 0.044550566889656196 0.0
78 1 1 63.0186181929702 -0.7141975954093887 0.0
79 1 1 62.367234107957515 -1.4729457577084335 0.0
80 1 1 61.71585002294482 -2.231693920007478 0.0
81 1 1 61.06446593793213 -2.990442082306523 0.0
82 2 1 -3.0262373814341514 -10.30710051134602 0.0
83 2 1 -3.864390338428854 -9.761665253335469 0.0
84 2 1 -4.702543295423557 -9.21622999532492 0.0
85 2 1 -5.540696252418259 -8.670794737314369 0.0
86 2 1 -6.378849209412962 -8.125359479303818 0.0
87 2 1 -7.217002166407665 -7.5799242212932665 0.0
88 2 1 -8.055155123402368 -7.034488963282716 0.0
89 2 1 -8.89330808039707 -6.489053705272165 0.0
90 2 1 -9.731461037391773 -5.943618447261615 0.0
91 1 1 10.10734959283026 -67.64640381888479 0.0
92 1 1 9.153006412604396 -67.34769142483931 0.0
93 1 1 8.198663232378532 -67.04897903079382 0.0
94 1 1 7.244320052152669 -66.75026663674834 0.0
95 1 1 6.289976871926806 -66.45155424270285 0.0
96 1 1 5.335633691700942 -66.15284184865737 0.0
97 1 1 4.381290511475078 -65.8541294546119 0.0
98 1 1 3.426947331249215 -65.5554170605664 0.0
99 1 1 2.472604151023351 -65.25670466652092 0.0
100 2 1 1.310420721254975 -22.39999221972584 0.0
101 2 1 0.464150725641002 -22.932746473133097 0.0
102 2 1 -0.3821192699729712 -23.465500726540355 0.0
103 2 1 -1.2283892655869444 -23.998254979947614 0.0
104 2 1 -2.0746592612009174 -24.531009233354872 0.0
105 2 1 -2.9209292568148904 -25.06376348676213 0.0
106 2 1 -3.7671992524288633 -25.59651774016939 0.0
107 2 1 -4.613469248042836 -26.129271993576648 0.0
108 2 1 -5.459739243656809 -26.662026246983906 0.0
109 1 1 11.88602783723621 -58.86066112590331 0.0
110 1 1 12.334228517698358 -59.754594093207494 0.0
111 1 1 12.782429198160509 -60.64852706051168 0.0
112 1 1 13.230629878622658 -61.542460027815864 0.0
113 1 1 13.678830559084808 -62.43639299512005 0.0
114 1 1 14.127031239546959 -63.33032596242424 0.0
115 1 1 14.575231920009108 -64.22425892972842 0.0
116 1 1 15.023432600471258 -65.1181918970326 0.0
117 1 1 15.471633280933407 -66.0121248643368 0.0
118 2 1 58.83113995773032 10.858747587340043 0.0
119 2 1 59.103690865667836 11.82088895043719 0.0
120 2 1 59.37624177360535 12.783030313534336 0.0
121 2 1 59.648792681542865 13.745171676631484 0.0
122 2 1 59.92134358948038 14.707313039728632 0.0
123 2 1 60.193894497417894 15.66945440282578 0.0
124 2 1 60.46644540535541 16.631595765922928 0.0
125 2 1 60.73899631329292 17.593737129020074 0.0
126 2 1 61.01154722123044 18.555878492117223 0.0
127 1 1 74.39608010763939 1.3605193675473775 0.0
128 1 1 75.21814632130089 0.7911274635337493 0.0
129 1 1 76.04021253496238 0.22173555952012114 0.0
130 1 1 76.86227874862386 -0.347656344493507 0.0
131 1 1 77.68434496228535 -0.9170482485071352 0.0
132 1 1 78.50641117594684 -1.4864401525207633 0.0
133 1 1 79.32847738960832 -2.0558320565343915 0.0
134 1 1 80.15054360326981 -2.62522396054802 0.0
135 1 1 80.97260981693131 -3.194615864561648 0.0
136 2 1 -2.230474547052682 -52.24532294093363 0.0
137 2 1 -1.4764000878937367 -52.902111879668254 0.0
138 2 1 -0.7223256287347917 -53.55890081840287 0.0
139 2 1 0.03174883042415344 -54.21568975713749 0.0
140 2 1 0.7858232895830985 -54.872478695872104 0.0
141 2 1 1.5398977487420438 -55.52926763460672 0.0
142 2 1 2.293972207900989 -56.18605657334134 0.0
143 2 1 3.0480466670599338 -56.842845512075954 0.0
144 2 1 3.802121126218879 -57.499634450810575 0.0
145 1 1 -1.2631569449096958 79.02982373567882 0.0
146 1 1 -1.1887469831138187 80.02705147174794 0.0
147 1 1 -1.1143370213179415 81.02427920781706 0.0
148 1 1 -1.0399270595220644 82.02150694388617 0.0
149 1 1 -0.9655170977261873 83.01873467995529 0.0
150 1 1 -0.8911071359303102 84.01596241602441 0.0
151 1 1 -0.8166971741344331 85.01319015209351 0.0
152 1 1 -0.7422872123385561 86.01041788816264 0.0
153 1 1 -0.667877250542679 87.00764562423176 0.0
154 2 1 -49.46070033286943 48.172203745813476 0.0
155 2 1 -49.47089552178073 47.172255718102505 0.0
156 2 1 -49.481090710692044 46.172307690391534 0.0
157 2 1 -49.491285899603355 45.17235966268056 0.0
158 2 1 -49.501481088514666 44.17241163496959 0.0
159 2 1 -49.51167627742598 43.17246360725862 0.0
160 2 1 -49.52187146633729 42.17251557954765 0.0
161 2 1 -49.5320666552486 41.17256755183668 0.0
162 2 1 -49.5422618441599 40.17261952412571 0.0
163 1 1 -51.57126692447509 -31.797791885807648 0.0
164 1 1 -52.34969782023353 -31.17006157705339 0.0
165 1 1 -53.12812871599196 -30.54233126829913 0.0
166 1 1 -53.9065596117504 -29.914600959544867 0.0
167 1 1 -54.684990507508836 -29.286870650790608 0.0
168 1 1 -55.46342140326727 -28.65914034203635 0.0
169 1 1 -56.24185229902571 -28.031410033282086 0.0
170 1 1 -57.02028319478414 -27.403679724527827 0.0
171 1 1 -57.79871409054258 -26.775949415773567 0.0
172 2 1 50.17269252619821 58.162883496600855 0.0
173 2 1 51.06629175311564 57.714017791013354 0.0
174 2 1 51.95989098003308 57.265152085425854 0.0
175 2 1 52.85349020695051 56.816286379838346 0.0
176 2 1 53.74708943386794 56.367420674250845 0.0
177 2 1 54.64068866078537 55.918554968663344 0.0
178 2 1 55.5342878877028 55.469689263075836 0.0
179 2 1 56.42788711462024 55.020823557488335 0.0
180 2 1 57.32148634153767 54.571957851900834 0.0
181 1 1 81.85921822030987 -88.14235460153337 0.0
182 1 1 81.29944542122475 -88.97100073433337 0.0
183 1 1 80.73967262213962 -89.79964686713338 0.0
184 1 1 80.17989982305448 -90.62829299993338 0.0
185 1 1 79.62012702396936 -91.45693913273338 0.0
186 1 1 79.06035422488424 -92.28558526553338 0.0
187 1 1 78.5005814257991 -93.11423139833339 0.0
188 1 1 77.94080862671397 -93.94287753113339 0.0
189 1 1 77.38103582762885 -94.7715236639334 0.0
190 2 1 25.222849390017846 -78.75930263439768 0.0
191 2 1 25.267131071109834 -79.75832171966066 0.0
192 2 1 25.31141275220182 -80.75734080492363 0.0
193 2 1 25.355694433293813 -81.7563598901866 0.0
194 2 1 25.3999761143858 -82.75537897544957 0.0
195 2 1 25.44425779547779 -83.75439806071255 0.0
196 2 1 25.48853947656978 -84.75341714597552 0.0
197 2 1 25.53282115766177 -85.75243623123849 0.0
198 2 1 25.577102838753756 -86.75145531650146 0.0
199 1 1 35.93021257863418 67.82602666462702 0.0
200 1 1 36.41472591689054 68.70081053796471 0.0
201 1 1 36.8992392551469 69.57559441130239 0.0
202 1 1 37.38375259340326 70.45037828464008 0.0
203 1 1 37.868265931659614 71.32516215797776 0.0
204 1 1 38.35277926991597 72.19994603131543 0.0
205 1 1 38.837292608172326 73.07472990465313 0.0
206 1 1 39.32180594642869 73.9495137779908 0.0
207 1 1 39.806319284685046 74.8242976513285 0.0
208 2 1 42.794117862402594 -53.47567425098647 0.0
209 2 1 42.651386151724935 -52.48591283591361 0.0
210 2 1 42.50865444104727 -51.496151420840754 0.0
211 2 1 42.365922730369604 -50.50639000576789 0.0
212 2 1 42.22319101969194 -49.516628590695035 0.0
213 2 1 42.08045930901427 -48.52686717562218 0.0
214 2 1 41.93772759833661 -47.537105760549316 0.0
215 2 1 41.79499588765894 -46.54734434547646 0.0
216 2 1 41.652264176981284 -45.5575829304036 0.0
217 1 1 -96.24155475770584 87.94717106842243 0.0
218 1 1 -96.15512483544379 88.94342900115761 0.0
219 1 1 -96.06869491318172 89.93968693389279 0.0
220 1 1 -95.98226499091966 90.93594486662798 0.0
221 1 1 -95.8958350686576 91.93220279936315 0.0
222 1 1 -95.80940514639555 92.92846073209833 0.0
223 1 1 -95.72297522413349 93.92471866483352 0.0
224 1 1 -95.63654530187142 94.9209765975687 0.0
225 1 1 -95.55011537960937 95.91723453030387 0.0
226 2 1 36.32244528492303 -6.0891520691201055 0.0
227 2 1 36.35965312057747 -5.089844520381525 0.0
228 2 1 36.39686095623191 -4.090536971642943 0.0
229 2 1 36.434068791886354 -3.091229422904362 0.0
230 2 1 36.471276627540796 -2.091921874165781 0.0
231 2 1 36.50848446319524 -1.0926143254271996 0.0
232 2 1 36.54569229884968 -0.0933067766886182 0.0
233 2 1 36.58290013450412 0.9060007720499632 0.0
234 2 1 36.620107970158564 1.9053083207885444 0.0
235 1 1 -89.43837026518008 12.491502672506943 0.0
236 1 1 -88.4707836120385 12.744041914333385 0.0
237 1 1 -87.50319695889692 12.996581156159827 0.0
238 1 1 -86.53561030575534 13.249120397986271 0.0
239 1 1 -85.56802365261376 13.501659639812713 0.0
240 1 1 -84.60043699947218 13.754198881639155 0.0
241 1 1 -83.6328503463306 14.006738123465599 0.0
242 1 1 -82.66526369318902 14.259277365292041 0.0
243 1 1 -81.69767704004744 14.511816607118483 0.0
244 2 1 -16.786774698632136 -43.11447528855641 0.0
245 2 1 -16.821913287923955 -44.113857737643144 0.0
246 2 1 -16.857051877215774 -45.11324018672987 0.0
247 2 1 -16.892190466507593 -46.11262263581659 0.0
248 2 1 -16.92732905579941 -47.112005084903316 0.0
249 2 1 -16.96246764509123 -48.11138753399004 0.0
250 2 1 -16.99760623438305 -49.110769983076764 0.0
251 2 1 -17.032744823674868 -50.11015243216349 0.0
252 2 1 -17.067883412966687 -51.10953488125022 0.0
253 1 1 -10.047253340239905 -96.71658887445842 0.0
254 1 1 -9.302296862132277 -96.04947580628671 0.0
255 1 1 -8.557340384024648 -95.38236273811499 0.0
256 1 1 -7.81238390591702 -94.71524966994328 0.0
257 1 1 -7.067427427809392 -94.04813660177156 0.0
258 1 1 -6.3224709497017635 -93.38102353359984 0.0
259 1 1 -5.577514471594135 -92.71391046542813 0.0
260 1 1 -4.832557993486506 -92.04679739725641 0.0
261 1 1 -4.087601515378878 -91.3796843290847 0.0
262 2 1 48.98853665650451 -19.745479808006362 0.0
263 2 1 48.23197365693685 -19.091558996527485 0.0
264 2 1 47.475410657369196 -18.43763818504861 0.0
265 2 1 46.71884765780154 -17.783717373569736 0.0
266 2 1 45.962284658233884 -17.12979656209086 0.0
267 2 1 45.20572165866623 -16.475875750611984 0.0
268 2 1 44.44915865909857 -15.821954939133109 0.0
269 2 1 43.692595659530916 -15.168034127654234 0.0
270 2 1 42.93603265996326 -14.51411331617536 0.0
271 1 1 -33.721210189692904 23.655250685316865 0.0
272 1 1 -34.65160957595613 23.28870330496745 0.0
273 1 1 -35.582008962219355 22.922155924618036 0.0
274 1 1 -36.51240834848257 22.555608544268622 0.0
275 1 1 -37.4428077347458 22.18906116391921 0.0
276 1 1 -38.373207121009024 21.822513783569796 0.0
277 1 1 -39.30360650727224 21.455966403220383 0.0
278 1 1 -40.23400589353547 21.08941902287097 0.0
279 1 1 -41.16440527979869 20.722871642521554 0.0
280 2 1 -66.04331433615118 77.2843816074866 0.0
281 2 1 -65.6672950808858 76.35776975796725 0.0
282 2 1 -65.29127582562042 75.4311579084479 0.0
283 2 1 -64.91525657035503 74.50454605892855 0.0
284 2 1 -64.53923731508964 73.57793420940921 0.0
285 2 1 -64.16321805982425 72.65132235988986 0.0
286 2 1 -63.78719880455886 71.72471051037051 0.0
287 2 1 -63.41117954929347 70.79809866085117 0.0
288 2 1 -63.03516029402808 69.87148681133182 0.0
289 1 1 -11.000259860670337 -21.336873147242976 0.0
290 1 1 -10.550451100029305 -20.44374825180529 0.0
291 1 1 -10.100642339388273 -19.550623356367606 0.0
292 1 1 -9.650833578747239 -18.65749846092992 0.0
293 1 1 -9.201024818106207 -17.76437356549223 0.0
294 1 1 -8.751216057465175 -16.871248670054545 0.0
295 1 1 -8.301407296824141 -15.97812377461686 0.0
296 1 1 -7.8515985361831095 -15.084998879179173 0.0
297 1 1 -7.401789775542078 -14.191873983741486 0.0
298 2 1 -44.844373212631155 -83.17351027165749 0.0
299 2 1 -44.66961214968585 -84.15812114447894 0.0
300 2 1 -44.49485108674053 -85.14273201730039 0.0
301 2 1 -44.320090023795224 -86.12734289012185 0.0
302 2 1 -44.14532896084991 -87.1119537629433 0.0
303 2 1 -43.970567897904594 -88.09656463576475 0.0
304 2 1 -43.795806834959286 -89.08117550858621 0.0
305 2 1 -43.62104577201397 -90.06578638140766 0.0
306 2 1 -43.446284709068664 -91.05039725422911 0.0
307 1 1 -1.6520415441914018 -92.35013448730577 0.0
308 1 1 -2.214217825687083 -93.1771519167011 0.0
309 1 1 -2.7763941071827642 -94.00416934609646 0.0
310 1 1 -3.3385703886784457 -94.8311867754918 0.0
311 1 1 -3.9007466701741267 -95.65820420488716 0.0
312 1 1 -4.462922951669808 -96.48522163428251 0.0
313 1 1 -5.02509923316549 -97.31223906367785 0.0
314 1 1 -5.587275514661171 -98.1392564930732 0.0
315 1 1 -6.149451796156852 -98.96627392246855 0.0
316 2 1 18.236120828955457 31.2640825295257 0.0
317 2 1 18.872452317416812 32.03549826490615 0.0
318 2 1 19.508783805878164 32.806914000286596 0.0
319 2 1 20.14511529433952 33.57832973566705 0.0
320 2 1 20.78144678280087 34.3497454710475 0.0
321 2 1 21.417778271262222 35.12116120642795 0.0
322 2 1 22.054109759723577 35.8925769418084 0.0
323 2 1 22.69044124818493 36.663992677188844 0.0
324 2 1 23.326772736646284 37.435408412569295 0.0
325 1 1 -17.791343274647133 55.48217526362795 0.0
326 1 1 -18.30845525392379 56.33809301720511 0.0
327 1 1 -18.82556723320045 57.19401077078228 0.0
328 1 1 -19.342679212477105 58.04992852435944 0.0
329 1 1 -19.85979119175376 58.905846277936604 0.0
330 1 1 -20.376903171030417 59.76176403151377 0.0
331 1 1 -20.894015150307073 60.61768178509093 0.0
332 1 1 -21.411127129583733 61.4735995386681 0.0
333 1 1 -21.92823910886039 62.32951729224526 0.0
334 2 1 99.95687863632311 67.26785376225405 0.0
335 2 1 99.42750934614762 68.11624527247743 0.0
336 2 1 98.89814005597214 68.96463678270081 0.0
337 2 1 98.36877076579665 69.81302829292419 0.0
338 2 1 97.83940147562117 70.66141980314757 0.0
339 2 1 97.31003218544569 71.50981131337095 0.0
340 2 1 96.78066289527021 72.35820282359433 0.0
341 2 1 96.25129360509473 73.2065943338177 0.0
342 2 1 95.72192431491924 74.05498584404108 0.0
343 1 1 74.20293230480722 76.74984646497865 0.0
344 1 1 74.81667376397223 75.96033939008825 0.0
345 1 1 75.43041522313726 75.17083231519786 0.0
346 1 1 76.04415668230229 74.38132524030746 0.0
347 1 1 76.65789814146731 73.59181816541707 0.0
348 1 1 77.27163960063234 72.80231109052667 0.0
349 1 1 77.88538105979737 72.01280401563628 0.0
350 1 1 78.4991225189624 71.22329694074588 0.0
351 1 1 79.11286397812741 70.43378986585549 0.0
352 2 1 -82.1019692421226 41.345998950237686 0.0
353 2 1 -83.0999936238758 41.283171142491796 0.0
354 2 1 -84.09801800562899 41.2203433347459 0.0
355 2 1 -85.09604238738218 41.15751552700001 0.0
356 2 1 -86.09406676913538 41.09468771925411 0.0
357 2 1 -87.09209115088858 41.031859911508214 0.0
358 2 1 -88.09011553264178 40.96903210376232 0.0
359 2 1 -89.08813991439496 40.906204296016426 0.0
360 2 1 -90.08616429614816 40.843376488270536 0.0
361 1 1 57.86712704888096 56.08768673157243 0.0
362 1 1 57.14153842997382 56.77581546670303 0.0
363 1 1 56.41594981106668 57.46394420183362 0.0
364 1 1 55.69036119215954 58.15207293696422 0.0
365 1 1 54.964772573252404 58.84020167209481 0.0
366 1 1 54.239183954345265 59.5283304072254 0.0
367 1 1 53.513595335438126 60.216459142355994 0.0
368 1 1 52.78800671653099 60.904587877486584 0.0
369 1 1 52.06241809762385 61.59271661261718 0.0
370 2 1 -48.6187650203382 -4.767364793097817 0.0
371 2 1 -48.35535387699794 -5.732048456048619 0.0
372 2 1 -48.09194273365768 -6.696732118999422 0.0
373 2 1 -47.82853159031742 -7.6614157819502235 0.0
374 2 1 -47.56512044697716 -8.626099444901026 0.0
375 2 1 -47.301709303636905 -9.590783107851829 0.0
376 2 1 -47.03829816029664 -10.555466770802632 0.0
377 2 1 -46.774887016956384 -11.520150433753432 0.0
378 2 1 -46.51147587361612 -12.484834096704235 0.0
379 1 1 65.4685848552063 -23.584174187875718 0.0
380 1 1 66.44858848691692 -23.783153789428262 0.0
381 1 1 67.42859211862752 -23.982133390980803 0.0
382 1 1 68.40859575033814 -24.181112992533347 0.0
383 1 1 69.38859938204875 -24.380092594085887 0.0
384 1 1 70.36860301375937 -24.579072195638428 0.0
385 1 1 71.34860664546999 -24.778051797190972 0.0
386 1 1 72.32861027718059 -24.977031398743513 0.0
387 1 1 73.3086139088912 -25.176011000296057 0.0
388 2 1 -23.111375431228726 -94.87472530027935 0.0
389 2 1 -23.776934788711852 -94.1283803789014 0.0
390 2 1 -24.442494146194974 -93.38203545752346 0.0
391 2 1 -25.1080535036781 -92.6356905361455 0.0
392 2 1 -25.773612861161222 -91.88934561476756 0.0
393 2 1 -26.439172218644345 -91.14300069338962 0.0
394 2 1 -27.10473157612747 -90.39665577201167 0.0
395 2 1 -27.770290933610593 -89.65031085063373 0.0
396 2 1 -28.43585029109372 -88.90396592925578 0.0
397 1 1 45.41904406449841 -28.293766468318836 0.0
398 1 1 45.32933188471036 -27.297798735509346 0.0
399 1 1 45.23961970492232 -26.301831002699856 0.0
400 1 1 45.14990752513427 -25.305863269890363 0.0
401 1 1 45.06019534534622 -24.309895537080873 0.0
402 1 1 44.97048316555818 -23.313927804271383 0.0
403 1 1 44.88077098577013 -22.31796007146189 0.0
404 1 1 44.79105880598208 -21.3219923386524 0.0
405 1 1 44.70134662619404 -20.32602460584291 0.0
406 2 1 8.70310814569163 33.408180988640005 0.0
407 2 1 9.659502559877406 33.116102703732956 0.0
408 2 1 10.615896974063183 32.82402441882591 0.0
409 2 1 11.57229138824896 32.53194613391885 0.0
410 2 1 12.528685802434737 32.2398678490118 0.0
411 2 1 13.485080216620513 31.94778956410475 0.0
412 2 1 14.44147463080629 31.6557112791977 0.0
413 2 1 15.397869044992067 31.363632994290647 0.0
414 2 1 16.354263459177844 31.071554709383598 0.0
415 1 1 -51.8943809407567 48.018612040266945 0.0
416 1 1 -52.82675414629952 47.65711486796016 0.0
417 1 1 -53.75912735184234 47.29561769565338 0.0
418 1 1 -54.69150055738516 46.934120523346586 0.0
419 1 1 -55.623873762927985 46.5726233510398 0.0
420 1 1 -56.55624696847081 46.21112617873302 0.0
421 1 1 -57.48862017401363 45.84962900642623 0.0
422 1 1 -58.42099337955645 45.48813183411944 0.0
423 1 1 -59.35336658509927 45.12663466181266 0.0
424 2 1 -48.22780995118688 -47.00116581563549 0.0
425 2 1 -47.612718723691735 -47.78962176358599 0.0
426 2 1 -46.99762749619659 -48.578077711536494 0.0
427 2 1 -46.38253626870146 -49.36653365948699 0.0
428 2 1 -45.767445041206315 -50.15498960743749 0.0
429 2 1 -45.15235381371117 -50.943445555387996 0.0
430 2 1 -44.53726258621604 -51.73190150333849 0.0
431 2 1 -43.922171358720895 -52.520357451288994 0.0
432 2 1 -43.30708013122575 -53.3088133992395 0.0
433 1 1 -47.0502254481763 -78.02865023992985 0.0
434 1 1 -47.51708246793338 -77.14431742752066 0.0
435 1 1 -47.98393948769046 -76.25998461511148 0.0
436 1 1 -48.45079650744754 -75.3756518027023 0.0
437 1 1 -48.91765352720463 -74.49131899029311 0.0
438 1 1 -49.384510546961714 -73.60698617788393 0.0
439 1 1 -49.85136756671879 -72.72265336547474 0.0
440 1 1 -50.31822458647588 -71.83832055306556 0.0
441 1 1 -50.78508160623296 -70.95398774065637 0.0
442 2 1 36.905183063463205 34.14595279764322 0.0
443 2 1 36.0672756195416 33.60014045313207 0.0
444 2 1 35.229368175619996 33.054328108620915 0.0
445 2 1 34.39146073169839 32.50851576410977 0.0
446 2 1 33.55355328777678 31.962703419598615 0.0
447 2 1 32.71564584385517 31.416891075087463 0.0
448 2 1 31.877738399933566 30.87107873057631 0.0
449 2 1 31.039830956011958 30.325266386065163 0.0
450 2 1 30.201923512090353 29.77945404155401 0.0
451 1 1 -52.75496984938818 -73.18862228163205 0.0
452 1 1 -53.46487106208484 -73.8929235440275 0.0
453 1 1 -54.1747722747815 -74.59722480642294 0.0
454 1 1 -54.88467348747816 -75.30152606881838 0.0
455 1 1 -55.59457470017482 -76.00582733121382 0.0
456 1 1 -56.304475912871474 -76.71012859360927 0.0
457 1 1 -57.01437712556813 -77.4144298560047 0.0
458 1 1 -57.724278338264796 -78.11873111840015 0.0
459 1 1 -58.43417955096145 -78.8230323807956 0.0
460 2 1 22.499313142076396 75.37605337229867 0.0
461 2 1 23.120015952797768 76.16009930256206 0.0
462 2 1 23.740718763519137 76.94414523282545 0.0
463 2 1 24.36142157424051 77.72819116308885 0.0
464 2 1 24.982124384961878 78.51223709335224 0.0
465 2 1 25.602827195683247 79.29628302361563 0.0
466 2 1 26.22353000640462 80.08032895387903 0.0
467 2 1 26.844232817125988 80.86437488414242 0.0
468 2 1 27.46493562784736 81.64842081440581 0.0
469 1 1 -41.83794063902034 -28.14725350249732 0.0
470 1 1 -40.85634752750263 -27.95626930571401 0.0
471 1 1 -39.87475441598491 -27.765285108930694 0.0
472 1 1 -38.89316130446719 -27.574300912147383 0.0
473 1 1 -37.911568192949474 -27.38331671536407 0.0
474 1 1 -36.929975081431756 -27.19233251858076 0.0
475 1 1 -35.94838196991404 -27.001348321797447 0.0
476 1 1 -34.96678885839632 -26.810364125014132 0.0
477 1 1 -33.98519574687861 -26.61937992823082 0.0
478 2 1 -32.10631968298296 63.4686491017772 0.0
479 2 1 -31.634040714886932 62.58719996751354 0.0
480 2 1 -31.161761746790912 61.70575083324988 0.0
481 2 1 -30.689482778694888 60.82430169898622 0.0
482 2 1 -30.217203810598868 59.94285256472256 0.0
483 2 1 -29.744924842502847 59.061403430458896 0.0
484 2 1 -29.272645874406823 58.179954296195234 0.0
485 2 1 -28.800366906310803 57.29850516193157 0.0
486 2 1 -28.328087938214782 56.41705602766791 0.0
487 1 1 86.75743651825259 63.02399650492419 0.0
488 1 1 85.94050218447244 62.44726581015308 0.0
489 1 1 85.12356785069227 61.87053511538197 0.0
490 1 1 84.30663351691211 61.293804420610854 0.0
491 1 1 83.48969918313196 60.71707372583974 0.0
492 1 1 82.67276484935181 60.140343031068625 0.0
493 1 1 81.85583051557165 59.56361233629751 0.0
494 1 1 81.03889618179149 58.9868816415264 0.0
495 1 1 80.22196184801133 58.41015094675529 0.0
496 2 1 2.9396432225774696 -16.583087931351574 0.0
497 2 1 1.9548411347899912 -16.756768235040344 0.0
498 2 1 0.9700390470025129 -16.930448538729117 0.0
499 2 1 -0.014763040784965487 -17.104128842417886 0.0
500 2 1 -0.9995651285724438 -17.27780914610666 0.0
501 2 1 -1.9843672163599222 -17.45148944979543 0.0
502 2 1 -2.9691693041474005 -17.6251697534842 0.0
503 2 1 -3.953971391934879 -17.798850057172974 0.0
504 2 1 -4.938773479722357 -17.972530360861743 0.0
505 1 1 22.157974483555943 45.723757657417124 0.0
506 1 1 21.78801342714314 46.65280492033647 0.0
507 1 1 21.418052370730344 47.58185218325582 0.0
508 1 1 21.048091314317546 48.51089944617516 0.0
509 1 1 20.678130257904748 49.43994670909451 0.0
510 1 1 20.30816920149195 50.368993972013854 0.0
511 1 1 19.93820814507915 51.298041234933194 0.0
512 1 1 19.568247088666354 52.22708849785254 0.0
513 1 1 19.198286032253552 53.15613576077189 0.0
514 2 1 62.689495826038126 -7.961369444332478 0.0
515 2 1 61.87502951054907 -7.381158602539878 0.0
516 2 1 61.06056319506001 -6.8009477607472775 0.0
517 2 1 60.24609687957095 -6.220736918954678 0.0
518 2 1 59.43163056408189 -5.640526077162078 0.0
519 2 1 58.617164248592836 -5.060315235369478 0.0
520 2 1 57.80269793310377 -4.4801043935768785 0.0
521 2 1 56.988231617614716 -3.8998935517842783 0.0
522 2 1 56.17376530212566 -3.319682709991678 0.0
523 1 1 -10.323454673039825 61.795911298972314 0.0
524 1 1 -11.012805535799362 62.52033892683633 0.0
525 1 1 -11.702156398558902 63.24476655470034 0.0
526 1 1 -12.39150726131844 63.96919418256436 0.0
527 1 1 -13.080858124077977 64.69362181042837 0.0
528 1 1 -13.770208986837515 65.41804943829239 0.0
529 1 1 -14.459559849597053 66.14247706615639 0.0
530 1 1 -15.148910712356592 66.8669046940204 0.0
531 1 1 -15.83826157511613 67.59133232188442 0.0
532 2 1 -94.11454785119605 44.23687967806122 0.0
533 2 1 -94.58080238076388 43.35222906134439 0.0
534 2 1 -95.0470569103317 42.46757844462755 0.0
535 2 1 -95.51331143989954 41.582927827910716 0.0
536 2 1 -95.97956596946737 40.698277211193876 0.0
537 2 1 -96.44582049903521 39.813626594477036 0.0
538 2 1 -96.91207502860304 38.9289759777602 0.0
539 2 1 -97.37832955817086 38.04432536104336 0.0
540 2 1 -97.8445840877387 37.15967474432653 0.0
541 1 1 51.53115602218849 89.16298997034613 0.0
542 1 1 52.0528121755273 90.01614579297396 0.0
543 1 1 52.57446832886612 90.86930161560177 0.0
544 1 1 53.09612448220493 91.72245743822958 0.0
545 1 1 53.617780635543745 92.57561326085741 0.0
546 1 1 54.13943678888256 93.42876908348524 0.0
547 1 1 54.66109294222137 94.28192490611305 0.0
548 1 1 55.18274909556019 95.13508072874086 0.0
549 1 1 55.704405248899 95.98823655136869 0.0
550 2 1 9.406318090421294 71.08234302615726 0.0
551 2 1 8.557382923870186 71.6108400299263 0.0
552 2 1 7.70844775731908 72.13933703369533 0.0
553 2 1 6.859512590767974 72.66783403746436 0.0
554 2 1 6.0105774242168675 73.19633104123339 0.0
555 2 1 5.161642257665761 73.72482804500243 0.0
556 2 1 4.312707091114655 74.25332504877146 0.0
557 2 1 3.463771924563548 74.78182205254049 0.0
558 2 1 2.6148367580124416 75.31031905630952 0.0
559 1 1 -31.748489543729455 -20.754422501720533 0.0
560 1 1 -32.339395556218584 -19.9476820946476 0.0
561 1 1 -32.930301568707705 -19.140941687574667 0.0
562 1 1 -33.52120758119683 -18.334201280501734 0.0
563 1 1 -34.112113593685955 -17.5274608734288 0.0
564 1 1 -34.703019606175076 -16.720720466355868 0.0
565 1 1 -35.293925618664204 -15.913980059282935 0.0
566 1 1 -35.884831631153325 -15.10723965221 0.0
567 1 1 -36.475737643642454 -14.300499245137066 0.0
568 2 1 -16.796493774935197 -5.800440971911708 0.0
569 2 1 -17.77242745985249 -5.5823734533681435 0.0
570 2 1 -18.748361144769788 -5.3643059348245785 0.0
571 2 1 -19.724294829687082 -5.146238416281014 0.0
572 2 1 -20.70022851460438 -4.928170897737449 0.0
573 2 1 -21.676162199521677 -4.710103379193884 0.0
574 2 1 -22.65209588443897 -4.49203586065032 0.0
575 2 1 -23.62802956935627 -4.273968342106755 0.0
576 2 1 -24.603963254273562 -4.055900823563191 0.0
577 1 1 -96.11814550468141 1.5539890273020365 0.0
578 1 1 -97.11790045530861 1.531852209636074 0.0
579 1 1 -98.11765540593584 1.5097153919701114 0.0
580 1 1 -99.11741035656304 1.4875785743041487 0.0
581 1 1 99.88283469280974 1.465441756638186 0.0
582 1 1 98.88307974218252 1.4433049389722235 0.0
583 1 1 97.88332479155531 1.4211681213062608 0.0
584 1 1 96.88356984092809 1.3990313036402982 0.0
585 1 1 95.88381489030088 1.3768944859743357 0.0
586 2 1 -43.55331981794132 62.58779727697734 0.0
587 2 1 -42.8605891252754 61.86660091852938 0.0
588 2 1 -42.16785843260949 61.14540456008142 0.0
589 2 1 -41.475127739943574 60.424208201633455 0.0
590 2 1 -40.78239704727766 59.70301184318549 0.0
591 2 1 -40.08966635461175 58.98181548473753 0.0
592 2 1 -39.39693566194583 58.26061912628957 0.0
593 2 1 -38.70420496927992 57.53942276784161 0.0
594 2 1 -38.011474276614 56.818226409393645 0.0
595 1 1 -48.96173439531311 84.34200943816873 0.0
596 1 1 -48.07333935893851 83.88292964189692 0.0
597 1 1 -47.18494432256391 83.42384984562511 0.0
598 1 1 -46.296549286189304 82.96477004935329 0.0
599 1 1 -45.4081542498147 82.50569025308148 0.0
600 1 1 -44.519759213440096 82.04661045680967 0.0
601 1 1 -43.63136417706549 81.58753066053785 0.0
602 1 1 -42.74296914069089 81.12845086426604 0.0
603 1 1 -41.85457410431629 80.66937106799423 0.0
604 2 1 86.17877422226127 -63.77235026321596 0.0