First line of this config file
18 atoms
16 bonds
14 angles
2 atom types
1 bond types
1 angle types
-100.0 100.0 xlo xhi
-100.0 100.0 ylo yhi
-0.25 0.25 zlo zhi

Masses

1 1
2 1


Atoms

1 1 1 -4.5 -2.0 0.0
2 1 1 -3.5 -2.0 0.0
3 1 1 -2.5 -2.0 0.0
4 1 1 -1.5 -2.0 0.0
5 1 1 -0.5 -2.0 0.0
6 1 1 0.5 -2.0 0.0
7 1 1 1.5 -2.0 0.0
8 1 1 2.5 -2.0 0.0
9 1 1 3.5 -2.0 0.0
10 2 1 -4.5 2.0 0.0
11 2 1 -3.5 2.0 0.0
12 2 1 -2.5 2.0 0.0
13 2 1 -1.5 2.0 0.0
14 2 1 -0.5 2.0 0.0
15 2 1 0.5 2.0 0.0
16 2 1 1.5 2.0 0.0
17 2 1 2.5 2.0 0.0
18 2 1 3.5 2.0 0.0


Bonds

1 1 1 2
2 1 2 3
3 1 3 4
4 1 4 5
5 1 5 6
6 1 6 7
7 1 7 8
8 1 8 9
9 1 10 11
10 1 11 12
11 1 12 13
12 1 13 14
13 1 14 15
14 1 15 16
15 1 16 17
16 1 17 18


Angles

1 1 1 2 3
2 1 2 3 4
3 1 3 4 5
4 1 4 5 6
5 1 5 6 7
6 1 6 7 8
7 1 7 8 9
8 1 10 11 12
9 1 11 12 13
10 1 12 13 14
11 1 13 14 15
12 1 14 15 16
13 1 15 16 17
14 1 16 17 18